7
	Energy:      -4.8958026
C         -4.18006        2.88685       -0.04340
C         -5.45321        2.02281        0.02078
C         -2.93865        1.97597       -0.01509
H         -4.14234        3.58331        0.80720
H         -4.16994        3.49176       -0.96208
H         -2.02936        2.59462       -0.03684
H         -6.33908        2.67490        0.02495
