#INFO: **** input file is /home/bhavnesh/pdftsoc/my_pyscf/x2c/Benchmarks/PySCF_/DKH2/Zn.py ****
if __name__ == '__main__':
    import numpy as np
    from pyscf import gto, scf
    from pdftsoc.my_pyscf.x2c import dkh
    mol = gto.M(atom='''Hg 0 0 0''',basis='ano@8s7p5d3f1g',verbose=4,output='./Hg.out')

    mfdkh = scf.RHF(mol) 
    mfdkh.get_hcore = lambda *args: dkh(mol, dkhord=2,c=137.0359895) # Orca's Speed of Light
    mfdkh.kernel()

#INFO: ******************** input file end ********************


System: uname_result(system='Linux', node='GL', release='5.15.133.1-microsoft-standard-WSL2', version='#1 SMP Thu Oct 5 21:02:42 UTC 2023', machine='x86_64')  Threads 12
Python 3.11.6 | packaged by conda-forge | (main, Oct  3 2023, 10:40:35) [GCC 12.3.0]
numpy 1.26.0  scipy 1.11.4  h5py 3.10.0
Date: Thu Jul 18 14:51:59 2024
PySCF version 2.6.2
PySCF path  /home/bhavnesh/pyscf
GIT ORIG_HEAD fd8ee3e264affb668874c543562a46239c66871e
GIT HEAD (branch master) ebf4e676fb4ba5aa63dad73d6cf1bb434488fb4c

[ENV] PYSCF_EXT_PATH /home/bhavnesh/pyscf-forge:/home/bhavnesh:/home/bhavnesh/pyscf
[CONFIG] conf_file None
[INPUT] verbose = 4
[INPUT] num. atoms = 1
[INPUT] num. electrons = 80
[INPUT] charge = 0
[INPUT] spin (= nelec alpha-beta = 2S) = 0
[INPUT] symmetry False subgroup None
[INPUT] Mole.unit = angstrom
[INPUT] Symbol           X                Y                Z      unit          X                Y                Z       unit  Magmom
[INPUT]  1 Hg     0.000000000000   0.000000000000   0.000000000000 AA    0.000000000000   0.000000000000   0.000000000000 Bohr   0.0

nuclear repulsion = 0
number of shells = 5
number of NR pGTOs = 291
number of NR cGTOs = 84
basis = ano@8s7p5d3f1g
ecp = {}
CPU time:         0.16


******** <class 'pyscf.scf.hf.RHF'> ********
method = RHF
initial guess = minao
damping factor = 0
level_shift factor = 0
DIIS = <class 'pyscf.scf.diis.CDIIS'>
diis_start_cycle = 1
diis_space = 8
diis_damp = 0
SCF conv_tol = 1e-09
SCF conv_tol_grad = None
SCF max_cycles = 50
direct_scf = True
direct_scf_tol = 1e-13
chkfile to save SCF result = /tmp/tmp27xncegz
max_memory 4000 MB (current use 110 MB)
Overwritten attributes  get_hcore  of <class 'pyscf.scf.hf.RHF'>
Set gradient conv threshold to 3.16228e-05
Initial guess from minao.
Scalar Relativisitc Corrections are added using DKH-2 Hamiltonian
Speed of light 137.0359895
init E= -19603.8061060565
  HOMO = -0.317036331229377  LUMO = 0.0602902166637521
cycle= 1 E= -19603.8075502527  delta_E= -0.00144  |g|= 0.0819  |ddm|= 0.105
  HOMO = -0.328700376849218  LUMO = 0.0556756850541567
cycle= 2 E= -19603.8077687044  delta_E= -0.000218  |g|= 0.0724  |ddm|= 0.0432
  HOMO = -0.32575973964915  LUMO = 0.0563868534031675
cycle= 3 E= -19603.8081150409  delta_E= -0.000346  |g|= 0.00245  |ddm|= 0.0181
  HOMO = -0.325577748476501  LUMO = 0.0562968731976358
cycle= 4 E= -19603.8081166781  delta_E= -1.64e-06  |g|= 0.000526  |ddm|= 0.00245
  HOMO = -0.325663043052052  LUMO = 0.056166479149866
cycle= 5 E= -19603.8081169115  delta_E= -2.33e-07  |g|= 8.43e-05  |ddm|= 0.00139
  HOMO = -0.3256483777307  LUMO = 0.0561703472140595
cycle= 6 E= -19603.8081169123  delta_E= -8.08e-10  |g|= 1.99e-06  |ddm|= 4.6e-05
  HOMO = -0.325648903439443  LUMO = 0.0561701088168361
Extra cycle  E= -19603.8081169123  delta_E= -7.28e-12  |g|= 1.53e-06  |ddm|= 1.25e-06
converged SCF energy = -19603.8081169123
