#INFO: **** input file is /home/bhavnesh/pdftsoc/my_pyscf/x2c/Benchmarks/PySCF_/DKH3/Zn.py ****
if __name__ == '__main__':
    import numpy as np
    from pyscf import gto, scf
    from pdftsoc.my_pyscf.x2c import dkh
    mol = gto.M(atom='''Cd 0 0 0''',basis='ano@7s6p4d2f1g',verbose=4,output='./Cd.out')

    mfdkh = scf.RHF(mol) 
    mfdkh.get_hcore = lambda *args: dkh(mol, dkhord=3,c=137.0359895) # Orca's Speed of Light
    mfdkh.kernel()

#INFO: ******************** input file end ********************


System: uname_result(system='Linux', node='GL', release='5.15.133.1-microsoft-standard-WSL2', version='#1 SMP Thu Oct 5 21:02:42 UTC 2023', machine='x86_64')  Threads 12
Python 3.11.6 | packaged by conda-forge | (main, Oct  3 2023, 10:40:35) [GCC 12.3.0]
numpy 1.26.0  scipy 1.11.4  h5py 3.10.0
Date: Thu Jul 18 14:51:04 2024
PySCF version 2.6.2
PySCF path  /home/bhavnesh/pyscf
GIT ORIG_HEAD fd8ee3e264affb668874c543562a46239c66871e
GIT HEAD (branch master) ebf4e676fb4ba5aa63dad73d6cf1bb434488fb4c

[ENV] PYSCF_EXT_PATH /home/bhavnesh/pyscf-forge:/home/bhavnesh:/home/bhavnesh/pyscf
[CONFIG] conf_file None
[INPUT] verbose = 4
[INPUT] num. atoms = 1
[INPUT] num. electrons = 48
[INPUT] charge = 0
[INPUT] spin (= nelec alpha-beta = 2S) = 0
[INPUT] symmetry False subgroup None
[INPUT] Mole.unit = angstrom
[INPUT] Symbol           X                Y                Z      unit          X                Y                Z       unit  Magmom
[INPUT]  1 Cd     0.000000000000   0.000000000000   0.000000000000 AA    0.000000000000   0.000000000000   0.000000000000 Bohr   0.0

nuclear repulsion = 0
number of shells = 5
number of NR pGTOs = 221
number of NR cGTOs = 68
basis = ano@7s6p4d2f1g
ecp = {}
CPU time:         0.16


******** <class 'pyscf.scf.hf.RHF'> ********
method = RHF
initial guess = minao
damping factor = 0
level_shift factor = 0
DIIS = <class 'pyscf.scf.diis.CDIIS'>
diis_start_cycle = 1
diis_space = 8
diis_damp = 0
SCF conv_tol = 1e-09
SCF conv_tol_grad = None
SCF max_cycles = 50
direct_scf = True
direct_scf_tol = 1e-13
chkfile to save SCF result = /tmp/tmpooknyxka
max_memory 4000 MB (current use 111 MB)
Overwritten attributes  get_hcore  of <class 'pyscf.scf.hf.RHF'>
Set gradient conv threshold to 3.16228e-05
Initial guess from minao.
Scalar Relativisitc Corrections are added using DKH-3 Hamiltonian
Speed of light 137.0359895
init E= -5591.51677893602
  HOMO = -0.27432789977563  LUMO = 0.0595430166054498
cycle= 1 E= -5591.51807146227  delta_E= -0.00129  |g|= 0.0535  |ddm|= 0.0973
  HOMO = -0.281614174082842  LUMO = 0.0549698201219052
cycle= 2 E= -5591.51823631419  delta_E= -0.000165  |g|= 0.0407  |ddm|= 0.03
  HOMO = -0.280407518736297  LUMO = 0.0551439056107203
cycle= 3 E= -5591.51837172127  delta_E= -0.000135  |g|= 0.00168  |ddm|= 0.0127
  HOMO = -0.280713698643264  LUMO = 0.0546690431730967
cycle= 4 E= -5591.51837440798  delta_E= -2.69e-06  |g|= 0.00041  |ddm|= 0.00432
  HOMO = -0.280798623906389  LUMO = 0.0545333166213203
cycle= 5 E= -5591.51837455871  delta_E= -1.51e-07  |g|= 4.95e-05  |ddm|= 0.00127
  HOMO = -0.280789420618358  LUMO = 0.0545404981836928
cycle= 6 E= -5591.51837455902  delta_E= -3.09e-10  |g|= 1.85e-06  |ddm|= 3.4e-05
  HOMO = -0.280789865469839  LUMO = 0.0545402068862426
Extra cycle  E= -5591.51837455902  delta_E= -1.82e-12  |g|= 1.37e-06  |ddm|= 1.45e-06
converged SCF energy = -5591.51837455902
