
                                 *****************
                                 * O   R   C   A *
                                 *****************

                                            #,                                       
                                            ###                                      
                                            ####                                     
                                            #####                                    
                                            ######                                   
                                           ########,                                 
                                     ,,################,,,,,                         
                               ,,#################################,,                 
                          ,,##########################################,,             
                       ,#########################################, ''#####,          
                    ,#############################################,,   '####,        
                  ,##################################################,,,,####,       
                ,###########''''           ''''###############################       
              ,#####''   ,,,,##########,,,,          '''####'''          '####       
            ,##' ,,,,###########################,,,                        '##       
           ' ,,###''''                  '''############,,,                           
         ,,##''                                '''############,,,,        ,,,,,,###''
      ,#''                                            '''#######################'''  
     '                                                          ''''####''''         
             ,#######,   #######,   ,#######,      ##                                
            ,#'     '#,  ##    ##  ,#'     '#,    #''#        ######   ,####,        
            ##       ##  ##   ,#'  ##            #'  '#       #        #'  '#        
            ##       ##  #######   ##           ,######,      #####,   #    #        
            '#,     ,#'  ##    ##  '#,     ,#' ,#      #,         ##   #,  ,#        
             '#######'   ##     ##  '#######'  #'      '#     #####' # '####'        



                  #######################################################
                  #                        -***-                        #
                  #          Department of theory and spectroscopy      #
                  #    Directorship and core code : Frank Neese         #
                  #        Max Planck Institute fuer Kohlenforschung    #
                  #                Kaiser Wilhelm Platz 1               #
                  #                 D-45470 Muelheim/Ruhr               #
                  #                      Germany                        #
                  #                                                     #
                  #                  All rights reserved                #
                  #                        -***-                        #
                  #######################################################


                         Program Version 5.0.4 -  RELEASE  -


 With contributions from (in alphabetic order):
   Daniel Aravena         : Magnetic Suceptibility
   Michael Atanasov       : Ab Initio Ligand Field Theory (pilot matlab implementation)
   Alexander A. Auer      : GIAO ZORA, VPT2 properties, NMR spectrum
   Ute Becker             : Parallelization
   Giovanni Bistoni       : ED, misc. LED, open-shell LED, HFLD
   Martin Brehm           : Molecular dynamics
   Dmytro Bykov           : SCF Hessian
   Vijay G. Chilkuri      : MRCI spin determinant printing, contributions to CSF-ICE
   Dipayan Datta          : RHF DLPNO-CCSD density
   Achintya Kumar Dutta   : EOM-CC, STEOM-CC
   Dmitry Ganyushin       : Spin-Orbit,Spin-Spin,Magnetic field MRCI
   Miquel Garcia          : C-PCM and meta-GGA Hessian, CC/C-PCM, Gaussian charge scheme
   Yang Guo               : DLPNO-NEVPT2, F12-NEVPT2, CIM, IAO-localization
   Andreas Hansen         : Spin unrestricted coupled pair/coupled cluster methods
   Benjamin Helmich-Paris : MC-RPA, TRAH-SCF, COSX integrals
   Lee Huntington         : MR-EOM, pCC
   Robert Izsak           : Overlap fitted RIJCOSX, COSX-SCS-MP3, EOM
   Marcus Kettner         : VPT2
   Christian Kollmar      : KDIIS, OOCD, Brueckner-CCSD(T), CCSD density, CASPT2, CASPT2-K
   Simone Kossmann        : Meta GGA functionals, TD-DFT gradient, OOMP2, MP2 Hessian
   Martin Krupicka        : Initial AUTO-CI
   Lucas Lang             : DCDCAS
   Marvin Lechner         : AUTO-CI (C++ implementation), FIC-MRCC
   Dagmar Lenk            : GEPOL surface, SMD
   Dimitrios Liakos       : Extrapolation schemes; Compound Job, initial MDCI parallelization
   Dimitrios Manganas     : Further ROCIS development; embedding schemes
   Dimitrios Pantazis     : SARC Basis sets
   Anastasios Papadopoulos: AUTO-CI, single reference methods and gradients
   Taras Petrenko         : DFT Hessian,TD-DFT gradient, ASA, ECA, R-Raman, ABS, FL, XAS/XES, NRVS
   Peter Pinski           : DLPNO-MP2, DLPNO-MP2 Gradient
   Christoph Reimann      : Effective Core Potentials
   Marius Retegan         : Local ZFS, SOC
   Christoph Riplinger    : Optimizer, TS searches, QM/MM, DLPNO-CCSD(T), (RO)-DLPNO pert. Triples
   Tobias Risthaus        : Range-separated hybrids, TD-DFT gradient, RPA, STAB
   Michael Roemelt        : Original ROCIS implementation
   Masaaki Saitow         : Open-shell DLPNO-CCSD energy and density
   Barbara Sandhoefer     : DKH picture change effects
   Avijit Sen             : IP-ROCIS
   Kantharuban Sivalingam : CASSCF convergence, NEVPT2, FIC-MRCI
   Bernardo de Souza      : ESD, SOC TD-DFT
   Georgi Stoychev        : AutoAux, RI-MP2 NMR, DLPNO-MP2 response
   Willem Van den Heuvel  : Paramagnetic NMR
   Boris Wezisla          : Elementary symmetry handling
   Frank Wennmohs         : Technical directorship


 We gratefully acknowledge several colleagues who have allowed us to
 interface, adapt or use parts of their codes:
   Stefan Grimme, W. Hujo, H. Kruse, P. Pracht,  : VdW corrections, initial TS optimization,
                  C. Bannwarth, S. Ehlert          DFT functionals, gCP, sTDA/sTD-DF
   Ed Valeev, F. Pavosevic, A. Kumar             : LibInt (2-el integral package), F12 methods
   Garnet Chan, S. Sharma, J. Yang, R. Olivares  : DMRG
   Ulf Ekstrom                                   : XCFun DFT Library
   Mihaly Kallay                                 : mrcc  (arbitrary order and MRCC methods)
   Jiri Pittner, Ondrej Demel                    : Mk-CCSD
   Frank Weinhold                                : gennbo (NPA and NBO analysis)
   Christopher J. Cramer and Donald G. Truhlar   : smd solvation model
   Lars Goerigk                                  : TD-DFT with DH, B97 family of functionals
   V. Asgeirsson, H. Jonsson                     : NEB implementation
   FAccTs GmbH                                   : IRC, NEB, NEB-TS, DLPNO-Multilevel, CI-OPT
                                                   MM, QMMM, 2- and 3-layer-ONIOM, Crystal-QMMM,
                                                   LR-CPCM, SF, NACMEs, symmetry and pop. for TD-DFT,
                                                   nearIR, NL-DFT gradient (VV10), updates on ESD,
                                                   ML-optimized integration grids
   S Lehtola, MJT Oliveira, MAL Marques          : LibXC Library
   Liviu Ungur et al                             : ANISO software


 Your calculation uses the libint2 library for the computation of 2-el integrals
 For citations please refer to: http://libint.valeyev.net

 Your ORCA version has been built with support for libXC version: 5.1.0
 For citations please refer to: https://tddft.org/programs/libxc/

 This ORCA versions uses:
   CBLAS   interface :  Fast vector & matrix operations
   LAPACKE interface :  Fast linear algebra routines
   SCALAPACK package :  Parallel linear algebra routines
   Shared memory     :  Shared parallel matrices
   BLAS/LAPACK       :  OpenBLAS 0.3.15  USE64BITINT DYNAMIC_ARCH NO_AFFINITY SkylakeX SINGLE_THREADED
        Core in use  :  SkylakeX
   Copyright (c) 2011-2014, The OpenBLAS Project


================================================================================

----- Orbital basis set information -----
The basis set includes element-specific modifications.

================================================================================
                                        WARNINGS
                       Please study these warnings very carefully!
================================================================================


WARNING: TCut can not be >=Thresh
  ===> : TCut is set to 0.01*Thresh

INFO   : the flag for use of the SHARK integral package has been found!

================================================================================
                                       INPUT FILE
================================================================================
NAME = Hg.inp
|  1> ! RHF DKH ExtremeSCF
|  2> 
|  3> %basis
|  4> newgto Hg
|  5> S   25
|  6> 1  52311095.5                    0.00111354
|  7> 2  12004904.5                    0.00151521
|  8> 3   3398412.62                   0.00392020
|  9> 4   1053466.23                   0.00732354
| 10> 5    352643.121                  0.01498748
| 11> 6    125378.803                  0.02847488
| 12> 7     46972.2738                 0.05488503
| 13> 8     18358.5908                 0.10321872
| 14> 9      7416.84618                0.18826590
| 15> 10     3086.36369                0.29901583
| 16> 11     1323.96497                0.33459965
| 17> 12      582.786344               0.17048633
| 18> 13      265.393450               0.01469357
| 19> 14      125.737369               0.00280218
| 20> 15       61.4474879             -0.00230841
| 21> 16       30.7434147              0.00164426
| 22> 17       15.1121715             -0.00107831
| 23> 18        7.32946465             0.00064170
| 24> 19        3.48638744            -0.00032579
| 25> 20        1.49957173             0.00014223
| 26> 21        0.59713115            -0.00006020
| 27> 22        0.20832533             0.00002552
| 28> 23        0.06626400            -0.00001379
| 29> 24        0.02650560             0.00000796
| 30> 25        0.01060224            -0.00000247
| 31> S   25
| 32> 1  52311095.5                   -0.00043394
| 33> 2  12004904.5                   -0.00059168
| 34> 3   3398412.62                  -0.00153387
| 35> 4   1053466.23                  -0.00287968
| 36> 5    352643.121                 -0.00593783
| 37> 6    125378.803                 -0.01143069
| 38> 7     46972.2738                -0.02251673
| 39> 8     18358.5908                -0.04392359
| 40> 9      7416.84618               -0.08547042
| 41> 10     3086.36369               -0.15215543
| 42> 11     1323.96497               -0.20264962
| 43> 12      582.786344              -0.05244657
| 44> 13      265.393450               0.42863082
| 45> 14      125.737369               0.56728899
| 46> 15       61.4474879              0.14738968
| 47> 16       30.7434147              0.00619667
| 48> 17       15.1121715             -0.00170585
| 49> 18        7.32946465             0.00108514
| 50> 19        3.48638744            -0.00069002
| 51> 20        1.49957173             0.00032553
| 52> 21        0.59713115            -0.00013607
| 53> 22        0.20832533             0.00005888
| 54> 23        0.06626400            -0.00003187
| 55> 24        0.02650560             0.00001845
| 56> 25        0.01060224            -0.00000573
| 57> S   25
| 58> 1  52311095.5                    0.00020817
| 59> 2  12004904.5                    0.00028394
| 60> 3   3398412.62                   0.00073635
| 61> 4   1053466.23                   0.00138349
| 62> 5    352643.121                  0.00285650
| 63> 6    125378.803                  0.00551028
| 64> 7     46972.2738                 0.01089625
| 65> 8     18358.5908                 0.02138122
| 66> 9      7416.84618                0.04209819
| 67> 10     3086.36369                0.07646943
| 68> 11     1323.96497                0.10556435
| 69> 12      582.786344               0.01984041
| 70> 13      265.393450              -0.34970940
| 71> 14      125.737369              -0.64115107
| 72> 15       61.4474879              0.12530757
| 73> 16       30.7434147              0.91506943
| 74> 17       15.1121715              0.29649999
| 75> 18        7.32946465             0.00471289
| 76> 19        3.48638744             0.00257601
| 77> 20        1.49957173            -0.00087223
| 78> 21        0.59713115             0.00024420
| 79> 22        0.20832533            -0.00010632
| 80> 23        0.06626400             0.00005552
| 81> 24        0.02650560            -0.00003202
| 82> 25        0.01060224             0.00000991
| 83> S   25
| 84> 1  52311095.5                   -0.00010432
| 85> 2  12004904.5                   -0.00014231
| 86> 3   3398412.62                  -0.00036906
| 87> 4   1053466.23                  -0.00069360
| 88> 5    352643.121                 -0.00143234
| 89> 6    125378.803                 -0.00276510
| 90> 7     46972.2738                -0.00547057
| 91> 8     18358.5908                -0.01075817
| 92> 9      7416.84618               -0.02121752
| 93> 10     3086.36369               -0.03881213
| 94> 11     1323.96497               -0.05384707
| 95> 12      582.786344              -0.00954935
| 96> 13      265.393450               0.20133455
| 97> 14      125.737369               0.39855129
| 98> 15       61.4474879             -0.11988238
| 99> 16       30.7434147             -1.12031583
|100> 17       15.1121715             -0.14653830
|101> 18        7.32946465             1.11884307
|102> 19        3.48638744             0.34523612
|103> 20        1.49957173            -0.00121795
|104> 21        0.59713115             0.00315879
|105> 22        0.20832533            -0.00101252
|106> 23        0.06626400             0.00052608
|107> 24        0.02650560            -0.00030283
|108> 25        0.01060224             0.00009361
|109> S   25
|110> 1  52311095.5                    0.00004558
|111> 2  12004904.5                    0.00006217
|112> 3   3398412.62                   0.00016127
|113> 4   1053466.23                   0.00030302
|114> 5    352643.121                  0.00062607
|115> 6    125378.803                  0.00120794
|116> 7     46972.2738                 0.00239309
|117> 8     18358.5908                 0.00469933
|118> 9      7416.84618                0.00930040
|119> 10     3086.36369                0.01695951
|120> 11     1323.96497                0.02377640
|121> 12      582.786344               0.00369993
|122> 13      265.393450              -0.08977177
|123> 14      125.737369              -0.18721424
|124> 15       61.4474879              0.06925434
|125> 16       30.7434147              0.59293085
|126> 17       15.1121715              0.08963441
|127> 18        7.32946465            -1.08256807
|128> 19        3.48638744            -0.33208703
|129> 20        1.49957173             1.11372440
|130> 21        0.59713115             0.38119151
|131> 22        0.20832533            -0.01461779
|132> 23        0.06626400             0.01128299
|133> 24        0.02650560            -0.00601154
|134> 25        0.01060224             0.00187496
|135> S   25
|136> 1  52311095.5                   -0.00001360
|137> 2  12004904.5                   -0.00001855
|138> 3   3398412.62                  -0.00004812
|139> 4   1053466.23                  -0.00009041
|140> 5    352643.121                 -0.00018685
|141> 6    125378.803                 -0.00036037
|142> 7     46972.2738                -0.00071444
|143> 8     18358.5908                -0.00140153
|144> 9      7416.84618               -0.00277866
|145> 10     3086.36369               -0.00505501
|146> 11     1323.96497               -0.00712382
|147> 12      582.786344              -0.00103322
|148> 13      265.393450               0.02675266
|149> 14      125.737369               0.05691376
|150> 15       61.4474879             -0.02248847
|151> 16       30.7434147             -0.18104294
|152> 17       15.1121715             -0.03302813
|153> 18        7.32946465             0.38193889
|154> 19        3.48638744             0.10614789
|155> 20        1.49957173            -0.55818692
|156> 21        0.59713115            -0.33299643
|157> 22        0.20832533             0.61418311
|158> 23        0.06626400             0.70135739
|159> 24        0.02650560            -0.04711126
|160> 25        0.01060224             0.02717337
|161> S   25
|162> 1  52311095.5                    0.00002336
|163> 2  12004904.5                    0.00003187
|164> 3   3398412.62                   0.00008264
|165> 4   1053466.23                   0.00015535
|166> 5    352643.121                  0.00032075
|167> 6    125378.803                  0.00061960
|168> 7     46972.2738                 0.00122519
|169> 8     18358.5908                 0.00241372
|170> 9      7416.84618                0.00475475
|171> 10     3086.36369                0.00873998
|172> 11     1323.96497                0.01208423
|173> 12      582.786344               0.00222278
|174> 13      265.393450              -0.04740742
|175> 14      125.737369              -0.09490509
|176> 15       61.4474879              0.03128525
|177> 16       30.7434147              0.33608476
|178> 17       15.1121715              0.01604272
|179> 18        7.32946465            -0.63414696
|180> 19        3.48638744            -0.32106042
|181> 20        1.49957173             1.71194851
|182> 21        0.59713115            -0.70989162
|183> 22        0.20832533            -1.42214014
|184> 23        0.06626400             1.16100887
|185> 24        0.02650560             0.17485437
|186> 25        0.01060224             0.02172431
|187> S   25
|188> 1  52311095.5                   -0.00003109
|189> 2  12004904.5                   -0.00004239
|190> 3   3398412.62                  -0.00011002
|191> 4   1053466.23                  -0.00020652
|192> 5    352643.121                 -0.00042741
|193> 6    125378.803                 -0.00082242
|194> 7     46972.2738                -0.00163697
|195> 8     18358.5908                -0.00319133
|196> 9      7416.84618               -0.00639092
|197> 10     3086.36369               -0.01144788
|198> 11     1323.96497               -0.01663159
|199> 12      582.786344              -0.00140205
|200> 13      265.393450               0.05906471
|201> 14      125.737369               0.13906607
|202> 15       61.4474879             -0.07243461
|203> 16       30.7434147             -0.39963977
|204> 17       15.1121715             -0.12960041
|205> 18        7.32946465             1.15364481
|206> 19        3.48638744             0.09423592
|207> 20        1.49957173            -3.01161120
|208> 21        0.59713115             3.93137640
|209> 22        0.20832533            -2.17580734
|210> 23        0.06626400            -0.27905804
|211> 24        0.02650560             1.18258948
|212> 25        0.01060224            -0.19297708
|213> P   22
|214> 1  16369430.4                    0.00003322
|215> 2   2923564.62                   0.00009078
|216> 3    665746.278                  0.00026956
|217> 4    176341.910                  0.00076434
|218> 5     52520.0218                 0.00222084
|219> 6     17323.6604                 0.00657966
|220> 7      6286.13361                0.01959228
|221> 8      2487.31052                0.05650155
|222> 9      1058.03692                0.14612231
|223> 10      475.714421               0.29895828
|224> 11      223.313037               0.39193842
|225> 12      108.148839               0.23929910
|226> 13       52.3397495              0.04093375
|227> 14       26.1868051              0.00002391
|228> 15       12.9673095              0.00010551
|229> 16        6.28738986            -0.00010390
|230> 17        2.96160374             0.00001488
|231> 18        1.27453491             0.00000114
|232> 19        0.49204983             0.00000163
|233> 20        0.19681993            -0.00000023
|234> 21        0.07872797             0.00000013
|235> 22        0.03149119            -0.00000004
|236> P   22
|237> 1  16369430.4                   -0.00001711
|238> 2   2923564.62                  -0.00004681
|239> 3    665746.278                 -0.00013927
|240> 4    176341.910                 -0.00039591
|241> 5     52520.0218                -0.00115603
|242> 6     17323.6604                -0.00344546
|243> 7      6286.13361               -0.01038836
|244> 8      2487.31052               -0.03050690
|245> 9      1058.03692               -0.08183823
|246> 10      475.714421              -0.17572960
|247> 11      223.313037              -0.23615322
|248> 12      108.148839              -0.00351246
|249> 13       52.3397495              0.50818710
|250> 14       26.1868051              0.48747163
|251> 15       12.9673095              0.09835793
|252> 16        6.28738986             0.00400004
|253> 17        2.96160374            -0.00032241
|254> 18        1.27453491             0.00016899
|255> 19        0.49204983            -0.00013817
|256> 20        0.19681993             0.00006927
|257> 21        0.07872797            -0.00003407
|258> 22        0.03149119             0.00001085
|259> P   22
|260> 1  16369430.4                    0.00000853
|261> 2   2923564.62                   0.00002333
|262> 3    665746.278                  0.00006944
|263> 4    176341.910                  0.00019756
|264> 5     52520.0218                 0.00057730
|265> 6     17323.6604                 0.00172414
|266> 7      6286.13361                0.00520935
|267> 8      2487.31052                0.01538269
|268> 9      1058.03692                0.04157600
|269> 10      475.714421               0.09059952
|270> 11      223.313037               0.12187701
|271> 12      108.148839              -0.02482196
|272> 13       52.3397495             -0.40892141
|273> 14       26.1868051             -0.36805520
|274> 15       12.9673095              0.44645310
|275> 16        6.28738986             0.67420582
|276> 17        2.96160374             0.14821739
|277> 18        1.27453491             0.00277245
|278> 19        0.49204983             0.00061705
|279> 20        0.19681993            -0.00016413
|280> 21        0.07872797             0.00006578
|281> 22        0.03149119            -0.00001979
|282> P   22
|283> 1  16369430.4                   -0.00000345
|284> 2   2923564.62                  -0.00000945
|285> 3    665746.278                 -0.00002813
|286> 4    176341.910                 -0.00008010
|287> 5     52520.0218                -0.00023381
|288> 6     17323.6604                -0.00069992
|289> 7      6286.13361               -0.00211006
|290> 8      2487.31052               -0.00626062
|291> 9      1058.03692               -0.01687392
|292> 10      475.714421              -0.03711887
|293> 11      223.313037              -0.04938334
|294> 12      108.148839               0.01188875
|295> 13       52.3397495              0.18675090
|296> 14       26.1868051              0.15465529
|297> 15       12.9673095             -0.27360584
|298> 16        6.28738986            -0.50245089
|299> 17        2.96160374             0.22037010
|300> 18        1.27453491             0.75972612
|301> 19        0.49204983             0.26546475
|302> 20        0.19681993            -0.00809126
|303> 21        0.07872797             0.00941092
|304> 22        0.03149119            -0.00286336
|305> P   22
|306> 1  16369430.4                    0.00000087
|307> 2   2923564.62                   0.00000239
|308> 3    665746.278                  0.00000710
|309> 4    176341.910                  0.00002022
|310> 5     52520.0218                 0.00005902
|311> 6     17323.6604                 0.00017669
|312> 7      6286.13361                0.00053269
|313> 8      2487.31052                0.00158091
|314> 9      1058.03692                0.00425196
|315> 10      475.714421               0.00935675
|316> 11      223.313037               0.01245753
|317> 12      108.148839              -0.00310946
|318> 13       52.3397495             -0.04774497
|319> 14       26.1868051             -0.03929240
|320> 15       12.9673095              0.07331468
|321> 16        6.28738986             0.13793673
|322> 17        2.96160374            -0.07908707
|323> 18        1.27453491            -0.28216877
|324> 19        0.49204983            -0.03366484
|325> 20        0.19681993             0.36947048
|326> 21        0.07872797             0.49210317
|327> 22        0.03149119             0.29958727
|328> P   22
|329> 1  16369430.4                   -0.00000202
|330> 2   2923564.62                  -0.00000552
|331> 3    665746.278                 -0.00001642
|332> 4    176341.910                 -0.00004681
|333> 5     52520.0218                -0.00013636
|334> 6     17323.6604                -0.00040959
|335> 7      6286.13361               -0.00122911
|336> 8      2487.31052               -0.00367035
|337> 9      1058.03692               -0.00985404
|338> 10      475.714421              -0.02193361
|339> 11      223.313037              -0.02858150
|340> 12      108.148839               0.00629728
|341> 13       52.3397495              0.11443608
|342> 14       26.1868051              0.08721271
|343> 15       12.9673095             -0.16772038
|344> 16        6.28738986            -0.35734737
|345> 17        2.96160374             0.26225982
|346> 18        1.27453491             0.83173310
|347> 19        0.49204983            -0.79524077
|348> 20        0.19681993            -0.67817604
|349> 21        0.07872797             0.43561904
|350> 22        0.03149119             0.47372130
|351> P   22
|352> 1  16369430.4                    0.00000223
|353> 2   2923564.62                   0.00000614
|354> 3    665746.278                  0.00001813
|355> 4    176341.910                  0.00005234
|356> 5     52520.0218                 0.00014925
|357> 6     17323.6604                 0.00046322
|358> 7      6286.13361                0.00132766
|359> 8      2487.31052                0.00420598
|360> 9      1058.03692                0.01074579
|361> 10      475.714421               0.02638573
|362> 11      223.313037               0.02837722
|363> 12      108.148839               0.00287414
|364> 13       52.3397495             -0.15690687
|365> 14       26.1868051             -0.04566073
|366> 15       12.9673095              0.09766565
|367> 16        6.28738986             0.65488985
|368> 17        2.96160374            -0.85597471
|369> 18        1.27453491            -0.42240267
|370> 19        0.49204983             1.56360457
|371> 20        0.19681993            -0.89847070
|372> 21        0.07872797            -0.80700323
|373> 22        0.03149119             1.10458340
|374> D   16
|375> 1      7416.84618                0.00046047
|376> 2      3086.36369                0.00137919
|377> 3      1323.96497                0.00708348
|378> 4       582.786344               0.02951516
|379> 5       265.393450               0.10284405
|380> 6       125.737369               0.25629332
|381> 7        61.4474879              0.40216051
|382> 8        30.7434147              0.32036900
|383> 9        15.1121715              0.09378773
|384> 10        7.32946465             0.00467284
|385> 11        3.48638744             0.00107948
|386> 12        1.49957173            -0.00030960
|387> 13        0.59713115             0.00013734
|388> 14        0.20832533            -0.00006433
|389> 15        0.08333013             0.00003406
|390> 16        0.03333205            -0.00001181
|391> D   16
|392> 1      7416.84618               -0.00024143
|393> 2      3086.36369               -0.00071521
|394> 3      1323.96497               -0.00374462
|395> 4       582.786344              -0.01558459
|396> 5       265.393450              -0.05569917
|397> 6       125.737369              -0.13948572
|398> 7        61.4474879             -0.21163779
|399> 8        30.7434147             -0.05978535
|400> 9        15.1121715              0.35816515
|401> 10        7.32946465             0.52633093
|402> 11        3.48638744             0.23171998
|403> 12        1.49957173             0.02164995
|404> 13        0.59713115            -0.00006422
|405> 14        0.20832533             0.00012327
|406> 15        0.08333013            -0.00005320
|407> 16        0.03333205             0.00001709
|408> D   16
|409> 1      7416.84618                0.00007603
|410> 2      3086.36369                0.00022083
|411> 3      1323.96497                0.00118120
|412> 4       582.786344               0.00485418
|413> 5       265.393450               0.01760338
|414> 6       125.737369               0.04369140
|415> 7        61.4474879              0.06681899
|416> 8        30.7434147              0.00836647
|417> 9        15.1121715             -0.14027344
|418> 10        7.32946465            -0.20871304
|419> 11        3.48638744             0.05217488
|420> 12        1.49957173             0.45013364
|421> 13        0.59713115             0.49526816
|422> 14        0.20832533             0.20968574
|423> 15        0.08333013             0.00004547
|424> 16        0.03333205             0.00636030
|425> D   16
|426> 1      7416.84618               -0.00008911
|427> 2      3086.36369               -0.00025931
|428> 3      1323.96497               -0.00138537
|429> 4       582.786344              -0.00570200
|430> 5       265.393450              -0.02069866
|431> 6       125.737369              -0.05145411
|432> 7        61.4474879             -0.07777626
|433> 8        30.7434147             -0.00530924
|434> 9        15.1121715              0.17811005
|435> 10        7.32946465             0.23587740
|436> 11        3.48638744            -0.12866089
|437> 12        1.49957173            -0.78000549
|438> 13        0.59713115             0.26089698
|439> 14        0.20832533             0.71582643
|440> 15        0.08333013             0.03043434
|441> 16        0.03333205             0.03137999
|442> D   16
|443> 1      7416.84618                0.00011241
|444> 2      3086.36369                0.00023554
|445> 3      1323.96497                0.00174923
|446> 4       582.786344               0.00582220
|447> 5       265.393450               0.02516182
|448> 6       125.737369               0.05316070
|449> 7        61.4474879              0.09910577
|450> 8        30.7434147             -0.03189133
|451> 9        15.1121715             -0.15585481
|452> 10        7.32946465            -0.37082324
|453> 11        3.48638744             0.51798705
|454> 12        1.49957173             0.60315382
|455> 13        0.59713115            -1.28004299
|456> 14        0.20832533             0.59710513
|457> 15        0.08333013             0.41504393
|458> 16        0.03333205             0.02897749
|459> F   12
|460> 1       475.714421               0.00160386
|461> 2       223.313037               0.00604027
|462> 3       108.148839               0.02996714
|463> 4        52.3397495              0.09559970
|464> 5        26.1868051              0.22249937
|465> 6        12.9673095              0.35072110
|466> 7         6.28738986             0.35632024
|467> 8         2.96160374             0.21275673
|468> 9         1.27453491             0.05799000
|469> 10        0.50981396             0.00247319
|470> 11        0.20392558             0.00088903
|471> 12        0.08157023            -0.00027474
|472> F   12
|473> 1       475.714421              -0.00050996
|474> 2       223.313037              -0.00191679
|475> 3       108.148839              -0.00955203
|476> 4        52.3397495             -0.03031195
|477> 5        26.1868051             -0.07247321
|478> 6        12.9673095             -0.11548063
|479> 7         6.28738986            -0.10829994
|480> 8         2.96160374             0.05584748
|481> 9         1.27453491             0.52212591
|482> 10        0.50981396             0.49853638
|483> 11        0.20392558             0.08748122
|484> 12        0.08157023             0.00583711
|485> F   12
|486> 1       475.714421               0.00068957
|487> 2       223.313037               0.00131614
|488> 3       108.148839               0.01199629
|489> 4        52.3397495              0.02563577
|490> 5        26.1868051              0.09519211
|491> 6        12.9673095              0.11512823
|492> 7         6.28738986             0.20326783
|493> 8         2.96160374            -0.31743587
|494> 9         1.27453491            -0.72121736
|495> 10        0.50981396             0.65162957
|496> 11        0.20392558             0.41224993
|497> 12        0.08157023             0.00345995
|498> G   4
|499> 1         3.251577               0.11553505
|500> 2         1.300631               0.67044785
|501> 3         0.520252               0.36872003
|502> 4         0.208100               0.02947331
|503> end
|504> end
|505> 
|506> *xyz 0 1
|507> Hg 0 0 0
|508> *
|509> 
|510>                          ****END OF INPUT****
================================================================================

                       ****************************
                       * Single Point Calculation *
                       ****************************

---------------------------------
CARTESIAN COORDINATES (ANGSTROEM)
---------------------------------
  Hg     0.000000    0.000000    0.000000

----------------------------
CARTESIAN COORDINATES (A.U.)
----------------------------
  NO LB      ZA    FRAG     MASS         X           Y           Z
   0 Hg   80.0000    0   200.590    0.000000    0.000000    0.000000

--------------------------------
INTERNAL COORDINATES (ANGSTROEM)
--------------------------------
 Hg     0   0   0     0.000000000000     0.00000000     0.00000000

---------------------------
INTERNAL COORDINATES (A.U.)
---------------------------
 Hg     0   0   0     0.000000000000     0.00000000     0.00000000

---------------------
BASIS SET INFORMATION
---------------------
There are 1 groups of distinct atoms

 Group   1 Type Hg  : 200s154p80d36f4g contracted to 8s7p5d3f1g pattern {2525252525252525/22222222222222/1616161616/121212/4}

Atom   0Hg   basis set group =>   1
------------------------------------------------------------------------------
                           ORCA GTO INTEGRAL CALCULATION
------------------------------------------------------------------------------
------------------------------------------------------------------------------
                   ___                                                        
                  /   \      - P O W E R E D   B Y -                         
                 /     \                                                     
                 |  |  |   _    _      __       _____    __    __             
                 |  |  |  | |  | |    /  \     |  _  \  |  |  /  |          
                  \  \/   | |  | |   /    \    | | | |  |  | /  /          
                 / \  \   | |__| |  /  /\  \   | |_| |  |  |/  /          
                |  |  |   |  __  | /  /__\  \  |    /   |      \           
                |  |  |   | |  | | |   __   |  |    \   |  |\   \          
                \     /   | |  | | |  |  |  |  | |\  \  |  | \   \       
                 \___/    |_|  |_| |__|  |__|  |_| \__\ |__|  \__/        
                                                                              
                      - O R C A' S   B I G   F R I E N D -                    
                                      &                                       
                       - I N T E G R A L  F E E D E R -                       
                                                                              
 v1 FN, 2020, v2 2021                                                         
------------------------------------------------------------------------------


Reading SHARK input file Hg.SHARKINP.tmp ... ok
----------------------
SHARK INTEGRAL PACKAGE
----------------------

Number of atoms                             ...      1
Number of basis functions                   ...    264
Number of shells                            ...     76
Maximum angular momentum                    ...      4
Integral batch strategy                     ... SHARK/LIBINT Hybrid
RI-J (if used) integral strategy            ... SPLIT-RIJ (Revised 2003 algorithm where possible)
Printlevel                                  ...      1
Contraction scheme used                     ... PARTIAL GENERAL contraction
Coulomb Range Separation                    ... NOT USED
Exchange Range Separation                   ... NOT USED
Finite Nucleus Model                        ... NOT USED
Auxiliary Coulomb fitting basis             ... NOT available
Auxiliary J/K fitting basis                 ... NOT available
Auxiliary Correlation fitting basis         ... NOT available
Auxiliary 'external' fitting basis          ... NOT available
Integral threshold                          ...     3.000000e-16
Primitive cut-off                           ...     3.000000e-18
Primitive pair pre-selection threshold      ...     3.000000e-18

Calculating pre-screening integrals         ... done (  0.1 sec) Dimension = 76
Calculating pre-screening integrals (ORCA)  ... done ( 29.9 sec) Dimension = 24
Organizing shell pair data                  ... done (  0.1 sec)
Shell pair information
Total number of shell pairs                 ...      2926
Shell pairs after pre-screening             ...      2924
Total number of primitive shell pairs       ...      3166
Primitive shell pairs kept                  ...      3161
          la=0 lb=0:    325 shell pairs
          la=1 lb=0:    550 shell pairs
          la=1 lb=1:    253 shell pairs
          la=2 lb=0:    400 shell pairs
          la=2 lb=1:    352 shell pairs
          la=2 lb=2:    136 shell pairs
          la=3 lb=0:    299 shell pairs
          la=3 lb=1:    264 shell pairs
          la=3 lb=2:    192 shell pairs
          la=3 lb=3:     78 shell pairs
          la=4 lb=0:     24 shell pairs
          la=4 lb=1:     22 shell pairs
          la=4 lb=2:     16 shell pairs
          la=4 lb=3:     12 shell pairs
          la=4 lb=4:      1 shell pairs

Calculating one electron integrals          ... done (  0.0 sec)
Calculating Nuclear repulsion               ... done (  0.0 sec) ENN=      0.000000000000 Eh

SHARK setup successfully completed in  30.4 seconds

Maximum memory used throughout the entire GTOINT-calculation: 512.0 MB
------------------------------------------------------------------------------
                          ORCA RELATIVISTIC HAMILTONIAN
------------------------------------------------------------------------------

Relativistic Method            ... DKH
Order of DKH treatment         ...   2
Treatment of potential         ... V(e,N)
Eps parameter for DKH          ...   0.00000000010000
Nucleus model                  ... Point Nucleus
Speed of light used            ... 137.03598950000000


            ************************************************
            *        DOUGLAS-KROLL-HESS HAMILTONIAN        *
            *   Programmed by FN according to literature   *
            *        procedures. Special thanks to         *
            *       B.A. Hess, M. Reiher and A. Wolf       *
            *     University Erlangen-Nuernberg/Bonn       *
            ************************************************

Uncontracting the basis (second version)       ... done
Basis set overlap                              ... done
Number of contracted basis functions           ...   84
Number of uncontracted basis functions         ...  291
Initializing the DKH file                      ... done
Calculating the relativistic integrals         ... done
Storing DKH matrices                           ... done
Code used for DKH trafo                        ... ORCA
Computing the DKH transformation               ... done
Storing the transformation variables           ... done
Transforming V and pVp to p**2 space           ... done
First transformation of V and pVp              ... done
Second transformation of Veff                  ... done
Adding kinetic energy                          ... done
Back transformation of Veff to r-space         ... done
Recovering DKH matrices                        ... done
Recontracting the H-matrix (second version)    ... done
Computing the DKH correction to the H-matrix   ... done
Reading the original H-matrix                  ... done
Adding DKH correction to the H-matrix          ... done
Storing the new modified H-matrix              ... done

Maximum memory used throughout the entire REL-calculation: 68.1 MB
-------------------------------------------------------------------------------
                                 ORCA SCF
-------------------------------------------------------------------------------

------------
SCF SETTINGS
------------
Hamiltonian:
 Ab initio Hamiltonian  Method          .... Hartree-Fock(GTOs)

Relativistic Settings:
 Scalar relativistic method             .... Douglas-Kroll-Hess
 Order of DKH procedure    Order        ....    2
 Mode of DKH-treatment                  .... V=V(e,N)
 Speed of light used       Velit        ....       137.035989
 Cutoff-constant           Eps          ....            1e-10 


General Settings:
 Integral files         IntName         .... Hg
 Hartree-Fock type      HFTyp           .... RHF
 Total Charge           Charge          ....    0
 Multiplicity           Mult            ....    1
 Number of Electrons    NEL             ....   80
 Basis Dimension        Dim             ....   84
 Nuclear Repulsion      ENuc            ....      0.0000000000 Eh

Convergence Acceleration:
 DIIS                   CNVDIIS         .... on
   Start iteration      DIISMaxIt       ....    12
   Startup error        DIISStart       ....  0.200000
   # of expansion vecs  DIISMaxEq       ....     5
   Bias factor          DIISBfac        ....   1.050
   Max. coefficient     DIISMaxC        ....  10.000
 Trust-Rad. Augm. Hess. CNVTRAH         .... auto
   Auto Start mean grad. ratio tolernc. ....  1.125000
   Auto Start start iteration           ....    20
   Auto Start num. interpolation iter.  ....    10
   Max. Number of Micro iterations      ....    16
   Max. Number of Macro iterations      .... Maxiter - #DIIS iter
   Number of Davidson start vectors     ....     2
   Converg. threshold I  (grad. norm)   ....   1.000e-09
   Converg. threshold II (energy diff.) ....   1.000e-14
   Grad. Scal. Fac. for Micro threshold ....   0.100
   Minimum threshold for Micro iter.    ....   0.010
   NR start threshold (gradient norm)   ....   0.001
   Initial trust radius                 ....   0.400
   Minimum AH scaling param. (alpha)    ....   1.000
   Maximum AH scaling param. (alpha)    .... 1000.000
   Orbital update algorithm             .... Taylor
   White noise on init. David. guess    .... on
   Maximum white noise                  ....   0.010
   Quad. conv. algorithm                .... NR
 SOSCF                  CNVSOSCF        .... off
 Level Shifting         CNVShift        .... on
   Level shift para.    LevelShift      ....    0.2500
   Turn off err/grad.   ShiftErr        ....    0.0010
 Zerner damping         CNVZerner       .... off
 Static damping         CNVDamp         .... on
   Fraction old density DampFac         ....    0.7000
   Max. Damping (<1)    DampMax         ....    0.9800
   Min. Damping (>=0)   DampMin         ....    0.0000
   Turn off err/grad.   DampErr         ....    0.1000
 Fernandez-Rico         CNVRico         .... off

SCF Procedure:
 Maximum # iterations   MaxIter         ....   125
 SCF integral mode      SCFMode         .... Direct
   Integral package                     .... SHARK and LIBINT hybrid scheme
 Reset frequency        DirectResetFreq ....    20
 Integral Threshold     Thresh          ....  3.000e-16 Eh
 Primitive CutOff       TCut            ....  3.000e-18 Eh

Convergence Tolerance:
 Convergence Check Mode ConvCheckMode   .... All-Criteria
 Convergence forced     ConvForced      .... 0
 Energy Change          TolE            ....  1.000e-14 Eh
 Max Density Change     TolMaxP         ....  1.000e-14
 RMS Density Change     TolRMSP         ....  1.000e-14
 DIIS Error             TolErr          ....  1.000e-14


Diagonalization of the overlap matrix:
Smallest eigenvalue                        ... 1.000e+00
Time for diagonalization                   ...    0.001 sec
Threshold for overlap eigenvalues          ... 1.000e-08
Number of eigenvalues below threshold      ... 0
Time for construction of square roots      ...    0.000 sec
Total time needed                          ...    0.002 sec

Time for model grid setup =    0.128 sec

------------------------------
INITIAL GUESS: MODEL POTENTIAL
------------------------------
Loading DKH relativistic densities                 ... done
Calculating cut-offs                               ... done
Initializing the effective Hamiltonian             ... done
Setting up the integral package (SHARK)            ... done
Starting the Coulomb interaction                   ... done (   0.1 sec)
Reading the grid                                   ... done
Mapping shells                                     ... done
Starting the XC term evaluation                    ... done (   0.1 sec)
Transforming the Hamiltonian                       ... done (   0.0 sec)
Diagonalizing the Hamiltonian                      ... done (   0.0 sec)
Back transforming the eigenvectors                 ... done (   0.0 sec)
Now organizing SCF variables                       ... done
                      ------------------
                      INITIAL GUESS DONE (   0.2 sec)
                      ------------------
--------------
SCF ITERATIONS
--------------
ITER       Energy         Delta-E        Max-DP      RMS-DP      [F,P]     Damp
               ***  Starting incremental Fock matrix formation  ***
  0 -19603.7489266116   0.000000000000 0.02251087  0.00070113  0.2929591 0.7000
  1 -19603.7680375244  -0.019110912795 0.01591778  0.00052188  0.2016886 0.7000
                               ***Turning on DIIS***
  2 -19603.7796777413  -0.011640216973 0.01527394  0.00036887  0.1392758 0.7000
  3 -19602.3125579350   1.467119806326 0.06096888  0.00101950  0.0965758 0.0000
  4 -19603.7378797137  -1.425321778650 0.01601491  0.00024470  0.0140319 0.0000
  5 -19603.8997392983  -0.161859584667 0.00854338  0.00010855  0.0093157 0.0000
  6 -19603.7965855966   0.103153701686 0.00667437  0.00008806  0.0045665 0.0000
  7 -19603.8149459475  -0.018360350914 0.00267173  0.00003522  0.0016968 0.0000
  8 -19603.8134919673   0.001453980247 0.00143266  0.00001870  0.0006055 0.0000
  9 -19603.8074801884   0.006011778856 0.00004228  0.00000079  0.0000352 0.0000
 10 -19603.8085683906  -0.001088202160 0.00000413  0.00000009  0.0000082 0.0000
 11 -19603.8081206944   0.000447696231 0.00000048  0.00000001  0.0000002 0.0000
 12 -19603.8081177330   0.000002961329 0.00000004  0.00000000  0.0000001 0.0000
 13 -19603.8081172729   0.000000460175 0.00000001  0.00000000  0.0000000 0.0000
 14 -19603.8081169013   0.000000371565 0.00000000  0.00000000  0.0000000 0.0000
 15 -19603.8081169084  -0.000000007083 0.00000000  0.00000000  0.0000000 0.0000
 16 -19603.8081169076   0.000000000753 0.00000000  0.00000000  0.0000000 0.0000
 17 -19603.8081169079  -0.000000000269 0.00000000  0.00000000  0.0000000 0.0000
 18 -19603.8081169079   0.000000000047 0.00000000  0.00000000  0.0000000 0.0000
                           ***RMSP convergence achieved***
 19 -19603.8081169078   0.000000000011 0.00000000  0.00000000  0.0000000 0.0000
               *** Restarting incremental Fock matrix formation ***
                                   *** Resetting DIIS ***
 20 -19603.8081169078   0.000000000004 0.00000000  0.00000000  0.0000000 0.0000
                           ***RMSP convergence achieved***
 21 -19603.8081169078   0.000000000015 0.00000000  0.00000000  0.0000000 0.0000
 22 -19603.8081169079  -0.000000000022 0.00000000  0.00000000  0.0000000 0.0000
 23 -19603.8081169078   0.000000000022 0.00000000  0.00000000  0.0000000 0.0000
                          ***Energy convergence achieved***
 24 -19603.8081169078   0.000000000000 0.00000000  0.00000000  0.0000000 0.0000

 WARNING: the maximum gradient error descreased on average only by a factor   1.0
          during the last 20 iterations

                      *** Initiating the TRAH-SCF procedure ***

 --------------------------------------------------------------------------------------------
   Iter.        energy            ||Error||_2        Shift      TRadius  Mac/Mic        Rej.
 --------------------------------------------------------------------------------------------
    0     -19603.808116907850     9.671554e-12                     0.400 (TRAH MAcro)   No

               *****************************************************
               *                     SUCCESS                       *
               *           SCF CONVERGED AFTER  26 CYCLES          *
               *****************************************************


----------------
TOTAL SCF ENERGY
----------------

Total Energy       :       -19603.80811691 Eh         -533446.73877 eV

Components:
Nuclear Repulsion  :            0.00000000 Eh               0.00000 eV
Electronic Energy  :       -19603.80811691 Eh         -533446.73877 eV
One Electron Energy:       -26876.31206086 Eh         -731341.63187 eV
Two Electron Energy:         7272.50394396 Eh          197894.89310 eV

Virial components:
Potential Energy   :       -49264.49429136 Eh        -1340555.04217 eV
Kinetic Energy     :        29660.68617445 Eh          807108.30340 eV
Virial Ratio       :            1.66093576


---------------
SCF CONVERGENCE
---------------

  Last Energy change         ...   -1.9604e+04  Tolerance :   1.0000e-14
  Last Orbital Gradient      ...    9.6716e-12  Tolerance :   1.0000e-09
  Last Orbital Rotation      ...    0.0000e+00

             **** THE GBW FILE WAS UPDATED (Hg.gbw) ****
             **** DENSITY Hg.scfp WAS UPDATED ****
             **** ENERGY FILE WAS UPDATED (Hg.en.tmp) ****
             **** THE GBW FILE WAS UPDATED (Hg.gbw) ****
             **** DENSITY Hg.scfp WAS UPDATED ****
----------------
ORBITAL ENERGIES
----------------

  NO   OCC          E(Eh)            E(eV) 
   0   2.0000   -3063.504034    -83362.1828 
   1   2.0000    -549.074038    -14941.0642 
   2   2.0000    -476.176839    -12957.4305 
   3   2.0000    -476.176839    -12957.4305 
   4   2.0000    -476.176839    -12957.4305 
   5   2.0000    -132.881729     -3615.8957 
   6   2.0000    -111.327858     -3029.3850 
   7   2.0000    -111.327858     -3029.3850 
   8   2.0000    -111.327858     -3029.3850 
   9   2.0000     -87.385973     -2377.8932 
  10   2.0000     -87.385973     -2377.8932 
  11   2.0000     -87.385973     -2377.8932 
  12   2.0000     -87.385973     -2377.8932 
  13   2.0000     -87.385973     -2377.8932 
  14   2.0000     -30.595621      -832.5492 
  15   2.0000     -23.362095      -635.7149 
  16   2.0000     -23.362095      -635.7149 
  17   2.0000     -23.362095      -635.7149 
  18   2.0000     -14.352626      -390.5548 
  19   2.0000     -14.352626      -390.5548 
  20   2.0000     -14.352626      -390.5548 
  21   2.0000     -14.352626      -390.5548 
  22   2.0000     -14.352626      -390.5548 
  23   2.0000      -5.091547      -138.5480 
  24   2.0000      -4.389201      -119.4362 
  25   2.0000      -4.389201      -119.4362 
  26   2.0000      -4.389201      -119.4362 
  27   2.0000      -4.389201      -119.4362 
  28   2.0000      -4.389201      -119.4362 
  29   2.0000      -4.389201      -119.4362 
  30   2.0000      -4.389201      -119.4362 
  31   2.0000      -3.046731       -82.9058 
  32   2.0000      -3.046731       -82.9058 
  33   2.0000      -3.046731       -82.9058 
  34   2.0000      -0.604299       -16.4438 
  35   2.0000      -0.604299       -16.4438 
  36   2.0000      -0.604299       -16.4438 
  37   2.0000      -0.604299       -16.4438 
  38   2.0000      -0.604299       -16.4438 
  39   2.0000      -0.325649        -8.8614 
  40   0.0000       0.056170         1.5285 
  41   0.0000       0.056170         1.5285 
  42   0.0000       0.056170         1.5285 
  43   0.0000       0.276629         7.5275 
  44   0.0000       0.345762         9.4087 
  45   0.0000       0.345762         9.4087 
  46   0.0000       0.345762         9.4087 
  47   0.0000       0.651975        17.7411 
  48   0.0000       0.651975        17.7411 
  49   0.0000       0.651975        17.7411 
  50   0.0000       0.651975        17.7411 
  51   0.0000       0.651975        17.7411 
  52   0.0000       1.260338        34.2955 
  53   0.0000       1.260338        34.2955 
  54   0.0000       1.260338        34.2955 
  55   0.0000       1.260338        34.2955 
  56   0.0000       1.260338        34.2955 
  57   0.0000       1.260338        34.2955 
  58   0.0000       1.260338        34.2955 
  59   0.0000       1.899084        51.6767 
  60   0.0000       1.899084        51.6767 
  61   0.0000       1.899084        51.6767 
  62   0.0000       2.191994        59.6472 
  63   0.0000       3.293878        89.6310 
  64   0.0000       3.293878        89.6310 
  65   0.0000       3.293878        89.6310 
  66   0.0000       3.293878        89.6310 
  67   0.0000       3.293878        89.6310 
  68   0.0000       3.563740        96.9743 
  69   0.0000       3.563740        96.9743 
  70   0.0000       3.563740        96.9743 
  71   0.0000       3.563740        96.9743 
  72   0.0000       3.563740        96.9743 
  73   0.0000       3.563740        96.9743 
  74   0.0000       3.563740        96.9743 
  75   0.0000       3.779725       102.8515 
  76   0.0000       3.779725       102.8515 
  77   0.0000       3.779725       102.8515 
  78   0.0000       3.779725       102.8515 
  79   0.0000       3.779725       102.8515 
  80   0.0000       3.779725       102.8515 
  81   0.0000       3.779725       102.8515 
  82   0.0000       3.779725       102.8515 
  83   0.0000       3.779725       102.8515 

                    ********************************
                    * MULLIKEN POPULATION ANALYSIS *
                    ********************************

-----------------------
MULLIKEN ATOMIC CHARGES
-----------------------
   0 Hg:    0.000000
Sum of atomic charges:    0.0000000

--------------------------------
MULLIKEN REDUCED ORBITAL CHARGES
--------------------------------
  0 Hgs       :    12.000000  s :    12.000000
      pz      :     8.000000  p :    24.000000
      px      :     8.000000
      py      :     8.000000
      dz2     :     6.000000  d :    30.000000
      dxz     :     6.000000
      dyz     :     6.000000
      dx2y2   :     6.000000
      dxy     :     6.000000
      f0      :     2.000000  f :    14.000000
      f+1     :     2.000000
      f-1     :     2.000000
      f+2     :     2.000000
      f-2     :     2.000000
      f+3     :     2.000000
      f-3     :     2.000000
      g0      :     0.000000  g :     0.000000
      g+1     :     0.000000
      g-1     :     0.000000
      g+2     :     0.000000
      g-2     :     0.000000
      g+3     :     0.000000
      g-3     :     0.000000
      g+4     :     0.000000
      g-4     :     0.000000


                     *******************************
                     * LOEWDIN POPULATION ANALYSIS *
                     *******************************

----------------------
LOEWDIN ATOMIC CHARGES
----------------------
   0 Hg:   -0.000000

-------------------------------
LOEWDIN REDUCED ORBITAL CHARGES
-------------------------------
  0 Hgs       :    12.000000  s :    12.000000
      pz      :     8.000000  p :    24.000000
      px      :     8.000000
      py      :     8.000000
      dz2     :     6.000000  d :    30.000000
      dxz     :     6.000000
      dyz     :     6.000000
      dx2y2   :     6.000000
      dxy     :     6.000000
      f0      :     2.000000  f :    14.000000
      f+1     :     2.000000
      f-1     :     2.000000
      f+2     :     2.000000
      f-2     :     2.000000
      f+3     :     2.000000
      f-3     :     2.000000
      g0      :     0.000000  g :     0.000000
      g+1     :     0.000000
      g-1     :     0.000000
      g+2     :     0.000000
      g-2     :     0.000000
      g+3     :     0.000000
      g-3     :     0.000000
      g+4     :     0.000000
      g-4     :     0.000000


                      *****************************
                      * MAYER POPULATION ANALYSIS *
                      *****************************

  NA   - Mulliken gross atomic population
  ZA   - Total nuclear charge
  QA   - Mulliken gross atomic charge
  VA   - Mayer's total valence
  BVA  - Mayer's bonded valence
  FA   - Mayer's free valence

  ATOM       NA         ZA         QA         VA         BVA        FA
  0 Hg    80.0000    80.0000     0.0000    -0.0000     0.0000    -0.0000

  Mayer bond orders larger than 0.100000



Warning: MO coefficients are modified such that the real solid harmonic m components
have the correct order within each shell (0, +1, -1, +2, -2, ...) and all s orbitals
come before all p orbitals etc. (with increasing orbital energy within each block of given angular momentum).

--------------------------
ATOM BASIS FOR ELEMENT Hg
--------------------------
 NewGTO Hg
 S 49
    1   52311095.500000000000         0.001113540009
    2   12004904.500000000000         0.001515210012
    3    3398412.620000000112         0.003920200032
    4    1053466.229999999981         0.007323540060
    5     352643.120999999985         0.014987480123
    6     125378.803000000000         0.028474880234
    7      46972.273800000003         0.054885030451
    8      18358.590800000002         0.103218720848
    9       7416.846180000000         0.188265901546
   10       3086.363690000000         0.299015832456
   11       1323.964970000000         0.334599652748
   12        582.786344000000         0.170486331400
   13        265.393450000000         0.014693570121
   14        125.737369000000         0.002802180023
   15         61.447487900000        -0.002308410019
   16         30.743414700000         0.001644260014
   17         15.112171500000        -0.001078310009
   18          7.329464650000         0.000641700005
   19          3.486387440000        -0.000325790003
   20          1.499571730000         0.000142230001
   21          0.597131150000        -0.000060200000
   22          0.208325330000         0.000025520000
   23          0.066264000000        -0.000013790000
   24          0.026505600000         0.000007960000
   25   52311095.500000000000        -0.000000000012
   26   12004904.500000000000        -0.000000000016
   27    3398412.620000000112        -0.000000000041
   28    1053466.229999999981        -0.000000000078
   29     352643.120999999985        -0.000000000161
   30     125378.803000000000        -0.000000000309
   31      46972.273800000003        -0.000000000609
   32      18358.590800000002        -0.000000001188
   33       7416.846180000000        -0.000000002312
   34       3086.363690000000        -0.000000004116
   35       1323.964970000000        -0.000000005482
   36        582.786344000000        -0.000000001419
   37        265.393450000000         0.000000011596
   38        125.737369000000         0.000000015347
   39   52311095.500000000000        -0.000000000001
   40   12004904.500000000000        -0.000000000001
   41    3398412.620000000112        -0.000000000003
   42    1053466.229999999981        -0.000000000006
   43     352643.120999999985        -0.000000000013
   44     125378.803000000000        -0.000000000026
   45      46972.273800000003        -0.000000000051
   46      18358.590800000002        -0.000000000100
   47       7416.846180000000        -0.000000000197
   48       3086.363690000000        -0.000000000358
   49   52311095.500000000000        -0.000000000000
 S 121
    1   52311095.500000000000         0.000000000043
    2   12004904.500000000000         0.000000000058
    3    3398412.620000000112         0.000000000150
    4    1053466.229999999981         0.000000000280
    5     352643.120999999985         0.000000000573
    6     125378.803000000000         0.000000001089
    7      46972.273800000003         0.000000002100
    8      18358.590800000002         0.000000003949
    9       7416.846180000000         0.000000007202
   10       3086.363690000000         0.000000011439
   11       1323.964970000000         0.000000012800
   12        582.786344000000         0.000000006522
   13   52311095.500000000000         0.000433939999
   14   12004904.500000000000         0.000591679999
   15    3398412.620000000112         0.001533869998
   16    1053466.229999999981         0.002879679996
   17     352643.120999999985         0.005937829991
   18     125378.803000000000         0.011430689983
   19      46972.273800000003         0.022516729967
   20      18358.590800000002         0.043923589935
   21       7416.846180000000         0.085470419873
   22       3086.363690000000         0.152155429774
   23       1323.964970000000         0.202649619699
   24        582.786344000000         0.052446569922
   25        265.393450000000        -0.428630819364
   26        125.737369000000        -0.567288989159
   27         61.447487900000        -0.147389679781
   28         30.743414700000        -0.006196669991
   29         15.112171500000         0.001705849997
   30          7.329464650000        -0.001085139998
   31          3.486387440000         0.000690019999
   32          1.499571730000        -0.000325530000
   33          0.597131150000         0.000136070000
   34          0.208325330000        -0.000058880000
   35          0.066264000000         0.000031870000
   36          0.026505600000        -0.000018450000
   37          0.010602240000         0.000005730000
   38   52311095.500000000000         0.000000000111
   39   12004904.500000000000         0.000000000151
   40    3398412.620000000112         0.000000000392
   41    1053466.229999999981         0.000000000736
   42     352643.120999999985         0.000000001519
   43     125378.803000000000         0.000000002931
   44      46972.273800000003         0.000000005796
   45      18358.590800000002         0.000000011373
   46       7416.846180000000         0.000000022392
   47       3086.363690000000         0.000000040674
   48       1323.964970000000         0.000000056149
   49        582.786344000000         0.000000010553
   50        265.393450000000        -0.000000186010
   51        125.737369000000        -0.000000341027
   52         61.447487900000         0.000000066651
   53         30.743414700000         0.000000486723
   54         15.112171500000         0.000000157708
   55   52311095.500000000000         0.000000000033
   56   12004904.500000000000         0.000000000046
   57    3398412.620000000112         0.000000000118
   58    1053466.229999999981         0.000000000223
   59     352643.120999999985         0.000000000460
   60     125378.803000000000         0.000000000888
   61      46972.273800000003         0.000000001756
   62      18358.590800000002         0.000000003454
   63       7416.846180000000         0.000000006811
   64       3086.363690000000         0.000000012459
   65       1323.964970000000         0.000000017286
   66        582.786344000000         0.000000003066
   67        265.393450000000        -0.000000064632
   68        125.737369000000        -0.000000127942
   69         61.447487900000         0.000000038484
   70         30.743414700000         0.000000359642
   71         15.112171500000         0.000000047042
   72          7.329464650000        -0.000000359169
   73          3.486387440000        -0.000000110827
   74   52311095.500000000000         0.000000000004
   75   12004904.500000000000         0.000000000005
   76    3398412.620000000112         0.000000000014
   77    1053466.229999999981         0.000000000026
   78     352643.120999999985         0.000000000054
   79     125378.803000000000         0.000000000105
   80      46972.273800000003         0.000000000208
   81      18358.590800000002         0.000000000409
   82       7416.846180000000         0.000000000808
   83       3086.363690000000         0.000000001474
   84       1323.964970000000         0.000000002067
   85        265.393450000000        -0.000000007804
   86        125.737369000000        -0.000000016274
   87         30.743414700000         0.000000051542
   88          7.329464650000        -0.000000094106
   89   52311095.500000000000         0.000000000002
   90   12004904.500000000000         0.000000000002
   91    3398412.620000000112         0.000000000006
   92    1053466.229999999981         0.000000000011
   93     352643.120999999985         0.000000000022
   94     125378.803000000000         0.000000000042
   95      46972.273800000003         0.000000000083
   96      18358.590800000002         0.000000000164
   97       7416.846180000000         0.000000000322
   98       3086.363690000000         0.000000000593
   99       1323.964970000000         0.000000000820
  100        265.393450000000        -0.000000003215
  101        125.737369000000        -0.000000006436
  102         30.743414700000         0.000000022792
  103          7.329464650000        -0.000000043006
  104          1.499571730000         0.000000116100
  105   52311095.500000000000         0.000000000003
  106   12004904.500000000000         0.000000000004
  107    3398412.620000000112         0.000000000009
  108    1053466.229999999981         0.000000000018
  109     352643.120999999985         0.000000000037
  110     125378.803000000000         0.000000000071
  111      46972.273800000003         0.000000000141
  112      18358.590800000002         0.000000000275
  113       7416.846180000000         0.000000000551
  114       3086.363690000000         0.000000000987
  115       1323.964970000000         0.000000001433
  116        265.393450000000        -0.000000005090
  117        125.737369000000        -0.000000011985
  118         30.743414700000         0.000000034443
  119          7.329464650000        -0.000000099427
  120          1.499571730000         0.000000259556
  121          0.597131150000        -0.000000338826
 S 151
    1   52311095.500000000000         0.000000000011
    2   12004904.500000000000         0.000000000015
    3    3398412.620000000112         0.000000000039
    4    1053466.229999999981         0.000000000072
    5     352643.120999999985         0.000000000148
    6     125378.803000000000         0.000000000281
    7      46972.273800000003         0.000000000542
    8      18358.590800000002         0.000000001019
    9       7416.846180000000         0.000000001859
   10       3086.363690000000         0.000000002953
   11       1323.964970000000         0.000000003304
   12        582.786344000000         0.000000001684
   13   52311095.500000000000        -0.000000000232
   14   12004904.500000000000        -0.000000000316
   15    3398412.620000000112        -0.000000000820
   16    1053466.229999999981        -0.000000001539
   17     352643.120999999985        -0.000000003174
   18     125378.803000000000        -0.000000006110
   19      46972.273800000003        -0.000000012035
   20      18358.590800000002        -0.000000023478
   21       7416.846180000000        -0.000000045685
   22       3086.363690000000        -0.000000081329
   23       1323.964970000000        -0.000000108318
   24        582.786344000000        -0.000000028033
   25        265.393450000000         0.000000229108
   26        125.737369000000         0.000000303222
   27         61.447487900000         0.000000078781
   28   52311095.500000000000         0.000208169999
   29   12004904.500000000000         0.000283939999
   30    3398412.620000000112         0.000736349997
   31    1053466.229999999981         0.001383489994
   32     352643.120999999985         0.002856499987
   33     125378.803000000000         0.005510279975
   34      46972.273800000003         0.010896249950
   35      18358.590800000002         0.021381219902
   36       7416.846180000000         0.042098189806
   37       3086.363690000000         0.076469429648
   38       1323.964970000000         0.105564349514
   39        582.786344000000         0.019840409909
   40        265.393450000000        -0.349709398391
   41        125.737369000000        -0.641151067049
   42         61.447487900000         0.125307569423
   43         30.743414700000         0.915069425789
   44         15.112171500000         0.296499988635
   45          7.329464650000         0.004712889978
   46          3.486387440000         0.002576009988
   47          1.499571730000        -0.000872229996
   48          0.597131150000         0.000244199999
   49          0.208325330000        -0.000106320000
   50          0.066264000000         0.000055520000
   51          0.026505600000        -0.000032020000
   52          0.010602240000         0.000009910000
   53   52311095.500000000000         0.000000000514
   54   12004904.500000000000         0.000000000701
   55    3398412.620000000112         0.000000001819
   56    1053466.229999999981         0.000000003419
   57     352643.120999999985         0.000000007060
   58     125378.803000000000         0.000000013629
   59      46972.273800000003         0.000000026965
   60      18358.590800000002         0.000000053028
   61       7416.846180000000         0.000000104583
   62       3086.363690000000         0.000000191308
   63       1323.964970000000         0.000000265417
   64        582.786344000000         0.000000047070
   65        265.393450000000        -0.000000992395
   66        125.737369000000        -0.000001964493
   67         61.447487900000         0.000000590910
   68         30.743414700000         0.000005522132
   69         15.112171500000         0.000000722300
   70          7.329464650000        -0.000005514873
   71          3.486387440000        -0.000001701698
   72   52311095.500000000000         0.000000000084
   73   12004904.500000000000         0.000000000115
   74    3398412.620000000112         0.000000000297
   75    1053466.229999999981         0.000000000558
   76     352643.120999999985         0.000000001153
   77     125378.803000000000         0.000000002226
   78      46972.273800000003         0.000000004409
   79      18358.590800000002         0.000000008658
   80       7416.846180000000         0.000000017135
   81       3086.363690000000         0.000000031247
   82       1323.964970000000         0.000000043806
   83        582.786344000000         0.000000006817
   84        265.393450000000        -0.000000165397
   85        125.737369000000        -0.000000344928
   86         61.447487900000         0.000000127596
   87         30.743414700000         0.000001092429
   88         15.112171500000         0.000000165144
   89          7.329464650000        -0.000001994547
   90          3.486387440000        -0.000000611844
   91          1.499571730000         0.000002051950
   92          0.597131150000         0.000000702316
   93   52311095.500000000000         0.000000000003
   94   12004904.500000000000         0.000000000005
   95    3398412.620000000112         0.000000000012
   96    1053466.229999999981         0.000000000023
   97     352643.120999999985         0.000000000048
   98     125378.803000000000         0.000000000092
   99      46972.273800000003         0.000000000183
  100      18358.590800000002         0.000000000359
  101       7416.846180000000         0.000000000713
  102       3086.363690000000         0.000000001296
  103       1323.964970000000         0.000000001827
  104        265.393450000000        -0.000000006861
  105        125.737369000000        -0.000000014597
  106         30.743414700000         0.000000046433
  107          7.329464650000        -0.000000097959
  108          1.499571730000         0.000000143162
  109   52311095.500000000000         0.000000000019
  110   12004904.500000000000         0.000000000026
  111    3398412.620000000112         0.000000000066
  112    1053466.229999999981         0.000000000125
  113     352643.120999999985         0.000000000257
  114     125378.803000000000         0.000000000497
  115      46972.273800000003         0.000000000983
  116      18358.590800000002         0.000000001936
  117       7416.846180000000         0.000000003814
  118       3086.363690000000         0.000000007011
  119       1323.964970000000         0.000000009694
  120        582.786344000000         0.000000001783
  121        265.393450000000        -0.000000038031
  122        125.737369000000        -0.000000076135
  123         61.447487900000         0.000000025098
  124         30.743414700000         0.000000269613
  125          7.329464650000        -0.000000508725
  126          3.486387440000        -0.000000257561
  127          1.499571730000         0.000001373357
  128          0.597131150000        -0.000000569488
  129          0.208325330000        -0.000001140867
  130   52311095.500000000000         0.000000000028
  131   12004904.500000000000         0.000000000039
  132    3398412.620000000112         0.000000000101
  133    1053466.229999999981         0.000000000189
  134     352643.120999999985         0.000000000391
  135     125378.803000000000         0.000000000752
  136      46972.273800000003         0.000000001496
  137      18358.590800000002         0.000000002917
  138       7416.846180000000         0.000000005842
  139       3086.363690000000         0.000000010465
  140       1323.964970000000         0.000000015204
  141        582.786344000000         0.000000001282
  142        265.393450000000        -0.000000053995
  143        125.737369000000        -0.000000127130
  144         61.447487900000         0.000000066218
  145         30.743414700000         0.000000365339
  146         15.112171500000         0.000000118477
  147          7.329464650000        -0.000001054629
  148          3.486387440000        -0.000000086148
  149          1.499571730000         0.000002753128
  150          0.597131150000        -0.000003593950
  151          0.208325330000         0.000001989060
 S 160
    1   52311095.500000000000         0.000000000011
    2   12004904.500000000000         0.000000000015
    3    3398412.620000000112         0.000000000038
    4    1053466.229999999981         0.000000000072
    5     352643.120999999985         0.000000000146
    6     125378.803000000000         0.000000000278
    7      46972.273800000003         0.000000000536
    8      18358.590800000002         0.000000001008
    9       7416.846180000000         0.000000001839
   10       3086.363690000000         0.000000002921
   11       1323.964970000000         0.000000003268
   12        582.786344000000         0.000000001665
   13   52311095.500000000000        -0.000000000139
   14   12004904.500000000000        -0.000000000190
   15    3398412.620000000112        -0.000000000492
   16    1053466.229999999981        -0.000000000924
   17     352643.120999999985        -0.000000001905
   18     125378.803000000000        -0.000000003667
   19      46972.273800000003        -0.000000007224
   20      18358.590800000002        -0.000000014092
   21       7416.846180000000        -0.000000027422
   22       3086.363690000000        -0.000000048817
   23       1323.964970000000        -0.000000065017
   24        582.786344000000        -0.000000016827
   25        265.393450000000         0.000000137520
   26        125.737369000000         0.000000182007
   27         61.447487900000         0.000000047288
   28   52311095.500000000000        -0.000000001026
   29   12004904.500000000000        -0.000000001400
   30    3398412.620000000112        -0.000000003630
   31    1053466.229999999981        -0.000000006820
   32     352643.120999999985        -0.000000014082
   33     125378.803000000000        -0.000000027164
   34      46972.273800000003        -0.000000053715
   35      18358.590800000002        -0.000000105402
   36       7416.846180000000        -0.000000207530
   37       3086.363690000000        -0.000000376969
   38       1323.964970000000        -0.000000520398
   39        582.786344000000        -0.000000097807
   40        265.393450000000         0.000001723954
   41        125.737369000000         0.000003160666
   42         61.447487900000        -0.000000617726
   43         30.743414700000        -0.000004510995
   44         15.112171500000        -0.000001461649
   45   52311095.500000000000         0.000104320000
   46   12004904.500000000000         0.000142310001
   47    3398412.620000000112         0.000369060001
   48    1053466.229999999981         0.000693600002
   49     352643.120999999985         0.001432340005
   50     125378.803000000000         0.002765100010
   51      46972.273800000003         0.005470570020
   52      18358.590800000002         0.010758170039
   53       7416.846180000000         0.021217520076
   54       3086.363690000000         0.038812130139
   55       1323.964970000000         0.053847070193
   56        582.786344000000         0.009549350034
   57        265.393450000000        -0.201334550721
   58        125.737369000000        -0.398551291428
   59         61.447487900000         0.119882380430
   60         30.743414700000         1.120315834014
   61         15.112171500000         0.146538300525
   62          7.329464650000        -1.118843074009
   63          3.486387440000        -0.345236121237
   64          1.499571730000         0.001217950004
   65          0.597131150000        -0.003158790011
   66          0.208325330000         0.001012520004
   67          0.066264000000        -0.000526080002
   68          0.026505600000         0.000302830001
   69          0.010602240000        -0.000093610000
   70   52311095.500000000000         0.000000001258
   71   12004904.500000000000         0.000000001716
   72    3398412.620000000112         0.000000004452
   73    1053466.229999999981         0.000000008364
   74     352643.120999999985         0.000000017282
   75     125378.803000000000         0.000000033343
   76      46972.273800000003         0.000000066058
   77      18358.590800000002         0.000000129718
   78       7416.846180000000         0.000000256724
   79       3086.363690000000         0.000000468143
   80       1323.964970000000         0.000000656313
   81        582.786344000000         0.000000102131
   82        265.393450000000        -0.000002478021
   83        125.737369000000        -0.000005167780
   84         61.447487900000         0.000001911667
   85         30.743414700000         0.000016367005
   86         15.112171500000         0.000002474229
   87          7.329464650000        -0.000029882737
   88          3.486387440000        -0.000009166786
   89          1.499571730000         0.000030742763
   90          0.597131150000         0.000010522244
   91   52311095.500000000000         0.000000000155
   92   12004904.500000000000         0.000000000211
   93    3398412.620000000112         0.000000000549
   94    1053466.229999999981         0.000000001031
   95     352643.120999999985         0.000000002130
   96     125378.803000000000         0.000000004108
[...]
   64          1.499571730000        -0.300614792220
   65          0.597131150000         0.637979640868
   66          0.208325330000        -0.297600095757
   67          0.083330130000        -0.206859909764
   68          0.033332050000        -0.014442521703
 D 68
    1       7416.846180000000         0.000000000171
    2       3086.363690000000         0.000000000512
    3       1323.964970000000         0.000000002627
    4        582.786344000000         0.000000010948
    5        265.393450000000         0.000000038147
    6        125.737369000000         0.000000095064
    7         61.447487900000         0.000000149168
    8         30.743414700000         0.000000118830
    9         15.112171500000         0.000000034787
   10          7.329464650000         0.000000001733
   11       7416.846180000000         0.000000006950
   12       3086.363690000000         0.000000020590
   13       1323.964970000000         0.000000107801
   14        582.786344000000         0.000000448653
   15        265.393450000000         0.000001603481
   16        125.737369000000         0.000004015549
   17         61.447487900000         0.000006092681
   18         30.743414700000         0.000001721115
   19         15.112171500000        -0.000010310946
   20          7.329464650000        -0.000015152144
   21          3.486387440000        -0.000006670812
   22          1.499571730000        -0.000000623264
   23       7416.846180000000         0.000000013368
   24       3086.363690000000         0.000000038827
   25       1323.964970000000         0.000000207683
   26        582.786344000000         0.000000853479
   27        265.393450000000         0.000003095087
   28        125.737369000000         0.000007681972
   29         61.447487900000         0.000011748344
   30         30.743414700000         0.000001471021
   31         15.112171500000        -0.000024663357
   32          7.329464650000        -0.000036696642
   33          3.486387440000         0.000009173566
   34          1.499571730000         0.000079144039
   35          0.597131150000         0.000087079745
   36          0.208325330000         0.000036867665
   37       7416.846180000000         0.000044413872
   38       3086.363690000000         0.000129244317
   39       1323.964970000000         0.000690490916
   40        582.786344000000         0.002841969440
   41        265.393450000000         0.010316548433
   42        125.737369000000         0.025645564394
   43         61.447487900000         0.038764951607
   44         30.743414700000         0.002646211475
   45         15.112171500000        -0.088772942655
   46          7.329464650000        -0.117565128435
   47          3.486387440000         0.064126677916
   48          1.499571730000         0.388767408883
   49          0.597131150000        -0.130035293598
   50          0.208325330000        -0.356779522669
   51          0.083330130000        -0.015168969520
   52          0.033332050000        -0.015640296843
   53       7416.846180000000         0.000097452482
   54       3086.363690000000         0.000204198538
   55       1323.964970000000         0.001516473670
   56        582.786344000000         0.005047485467
   57        265.393450000000         0.021813733771
   58        125.737369000000         0.046087022198
   59         61.447487900000         0.085918541741
   60         30.743414700000        -0.027647800605
   61         15.112171500000        -0.135116431652
   62          7.329464650000        -0.321480697083
   63          3.486387440000         0.449062572005
   64          1.499571730000         0.522896867256
   65          0.597131150000        -1.109717699249
   66          0.208325330000         0.517653029039
   67          0.083330130000         0.359817286361
   68          0.033332050000         0.025121682462
 F 34
    1        475.714421000000         0.001603859998
    2        223.313037000000         0.006040269993
    3        108.148839000000         0.029967139964
    4         52.339749500000         0.095599699885
    5         26.186805100000         0.222499369733
    6         12.967309500000         0.350721099579
    7          6.287389860000         0.356320239572
    8          2.961603740000         0.212756729744
    9          1.274534910000         0.057989999930
   10          0.509813960000         0.002473189997
   11          0.203925580000         0.000889029999
   12          0.081570230000        -0.000274740000
   13        475.714421000000         0.000000015963
   14        223.313037000000         0.000000060002
   15        108.148839000000         0.000000299009
   16         52.339749500000         0.000000948860
   17         26.186805100000         0.000002268642
   18         12.967309500000         0.000003614911
   19          6.287389860000         0.000003390133
   20          2.961603740000        -0.000001748204
   21          1.274534910000        -0.000016344202
   22          0.509813960000        -0.000015605774
   23          0.203925580000        -0.000002738440
   24        475.714421000000         0.000000013862
   25        223.313037000000         0.000000026457
   26        108.148839000000         0.000000241149
   27         52.339749500000         0.000000515330
   28         26.186805100000         0.000001913552
   29         12.967309500000         0.000002314308
   30          6.287389860000         0.000004086090
   31          2.961603740000        -0.000006381096
   32          1.274534910000        -0.000014497913
   33          0.509813960000         0.000013099059
   34          0.203925580000         0.000008287049
 F 33
    1        475.714421000000        -0.000000028973
    2        223.313037000000        -0.000000109116
    3        108.148839000000        -0.000000541349
    4         52.339749500000        -0.000001726984
    5         26.186805100000        -0.000004019394
    6         12.967309500000        -0.000006335686
    7          6.287389860000        -0.000006436833
    8          2.961603740000        -0.000003843396
    9          1.274534910000        -0.000001047574
   10        475.714421000000         0.000449195625
   11        223.313037000000         0.001688394544
   12        108.148839000000         0.008413856155
   13         52.339749500000         0.026700124171
   14         26.186805100000         0.063837651688
   15         12.967309500000         0.101720514859
   16          6.287389860000         0.095395441261
   17          2.961603740000        -0.049192963523
   18          1.274534910000        -0.459911903721
   19          0.509813960000        -0.439133188391
   20          0.203925580000        -0.077057379570
   21          0.081570230000        -0.005141588113
   22        475.714421000000        -0.000326445963
   23        223.313037000000        -0.000623067404
   24        108.148839000000        -0.005679105010
   25         52.339749500000        -0.012136104566
   26         26.186805100000        -0.045064431488
   27         12.967309500000        -0.054502292607
   28          6.287389860000        -0.096228029809
   29          2.961603740000         0.150275763562
   30          1.274534910000         0.341427985024
   31          0.509813960000        -0.308484769511
   32          0.203925580000        -0.195161224248
   33          0.081570230000        -0.001637958017
 F 34
    1        475.714421000000        -0.000000052158
    2        223.313037000000        -0.000000196431
    3        108.148839000000        -0.000000974537
    4         52.339749500000        -0.000003108920
    5         26.186805100000        -0.000007235721
    6         12.967309500000        -0.000011405516
    7          6.287389860000        -0.000011587601
    8          2.961603740000        -0.000006918889
    9          1.274534910000        -0.000001885846
   10          0.509813960000        -0.000000080429
   11        475.714421000000         0.000241417673
   12        223.313037000000         0.000907418194
   13        108.148839000000         0.004521979878
   14         52.339749500000         0.014349832231
   15         26.186805100000         0.034309188447
   16         12.967309500000         0.054669121136
   17          6.287389860000         0.051269745748
   18          2.961603740000        -0.026438482794
   19          1.274534910000        -0.247177077422
   20          0.509813960000        -0.236009673216
   21          0.203925580000        -0.041414057174
   22          0.081570230000        -0.002763317741
   23        475.714421000000         0.000607404166
   24        223.313037000000         0.001159315108
   25        108.148839000000         0.010566869967
   26         52.339749500000         0.022581135342
   27         26.186805100000         0.083849477485
   28         12.967309500000         0.101410105620
   29          6.287389860000         0.179047416167
   30          2.961603740000        -0.279611743394
   31          1.274534910000        -0.635280579336
   32          0.509813960000         0.573984534624
   33          0.203925580000         0.363128217493
   34          0.081570230000         0.003047679053
 G 4
    1          3.251577000000         0.115535050050
    2          1.300631000000         0.670447850288
    3          0.520252000000         0.368720030158
    4          0.208100000000         0.029473310013
 end
-------------------------------------------
RADIAL EXPECTATION VALUES <R**-3> TO <R**3>
-------------------------------------------
   0 :     0.000000 37545.383837   109.596105     0.015702     0.000350     0.000010
   1 :     0.000000  5456.544862    25.637916     0.069068     0.005714     0.000540
   2 :     0.000000  1251.649007     9.191981     0.179885     0.037165     0.008449
   3 :     0.000000   315.674816     3.808843     0.399387     0.180071     0.088342
   4 :     0.000000    60.970018     1.502845     0.916420     0.942213     1.060038
   5 :     0.000000     5.274265     0.450827     2.849460     9.375025    35.077226
   6 :     0.000000     2.515968     0.320937     4.361933    22.692505   131.913122
   7 :     0.000000    41.709123     0.957567     2.321300     9.582987    58.499425
   8 : 32077.650643   603.667609    20.635319     0.062642     0.004817     0.000440
   9 : 32077.650643   603.667609    20.635319     0.062642     0.004817     0.000440
  10 : 32077.650643   603.667609    20.635319     0.062642     0.004817     0.000440
  11 :  7685.699356   142.752605     7.880518     0.181030     0.038135     0.008922
  12 :  7685.699356   142.752605     7.880518     0.181030     0.038135     0.008922
  13 :  7685.699356   142.752605     7.880518     0.181030     0.038135     0.008922
  14 :  1867.831839    36.050748     3.330865     0.423555     0.203967     0.107486
  15 :  1867.831839    36.050748     3.330865     0.423555     0.203967     0.107486
  16 :  1867.831839    36.050748     3.330865     0.423555     0.203967     0.107486
  17 :   304.784218     6.409315     1.264501     1.049361     1.246160     1.638354
  18 :   304.784218     6.409315     1.264501     1.049361     1.246160     1.638354
  19 :   304.784218     6.409315     1.264501     1.049361     1.246160     1.638354
  20 :     7.637703     0.210875     0.249189     4.865535    26.935921   166.684891
  21 :     7.637703     0.210875     0.249189     4.865535    26.935921   166.684891
  22 :     7.637703     0.210875     0.249189     4.865535    26.935921   166.684891
  23 :    13.061961     0.379638     0.344535     4.252047    24.546496   173.119649
  24 :    13.061962     0.379638     0.344535     4.252047    24.546496   173.119649
  25 :    13.061962     0.379638     0.344535     4.252047    24.546496   173.119649
  26 :   234.990166     4.723559     0.852859     2.581033    12.035493    81.621586
  27 :   234.990166     4.723559     0.852859     2.581033    12.035493    81.621586
  28 :   234.990166     4.723559     0.852859     2.581033    12.035493    81.621586
  29 :   765.642745    65.407988     7.266097     0.165036     0.031907     0.035505
  30 :   765.642745    65.407988     7.266097     0.165036     0.031907     0.035505
  31 :   765.642745    65.407988     7.266097     0.165036     0.031907     0.035505
  32 :   765.642745    65.407988     7.266097     0.165036     0.031907     0.035505
  33 :   765.642745    65.407988     7.266097     0.165036     0.031907     0.035505
  34 :   164.514339    15.557977     2.957599     0.448006     0.231788     0.667559
  35 :   164.514339    15.557977     2.957599     0.448006     0.231788     0.667559
  36 :   164.514338    15.557977     2.957599     0.448006     0.231788     0.667559
  37 :   164.514339    15.557977     2.957599     0.448006     0.231788     0.667559
  38 :   164.514339    15.557977     2.957599     0.448006     0.231788     0.667559
  39 :    15.532087     1.851579     0.894892     1.469961     2.557815    26.024752
  40 :    15.532087     1.851579     0.894892     1.469961     2.557815    26.024752
  41 :    15.532087     1.851579     0.894892     1.469961     2.557815    26.024752
  42 :    15.532086     1.851579     0.894892     1.469961     2.557815    26.024752
  43 :    15.532086     1.851579     0.894892     1.469961     2.557815    26.024752
  44 :     2.235419     0.381277     0.413708     3.098946    10.912815   211.137275
  45 :     2.235419     0.381277     0.413708     3.098946    10.912815   211.137275
  46 :     2.235419     0.381277     0.413708     3.098946    10.912815   211.137275
  47 :     2.235419     0.381277     0.413708     3.098946    10.912815   211.137275
  48 :     2.235419     0.381277     0.413708     3.098946    10.912815   211.137275
  49 :    44.063316     4.133884     1.135944     1.757610     4.933279    95.765931
  50 :    44.063316     4.133884     1.135944     1.757610     4.933279    95.765931
  51 :    44.063316     4.133884     1.135944     1.757610     4.933279    95.765931
  52 :    44.063316     4.133884     1.135944     1.757610     4.933279    95.765931
  53 :    44.063316     4.133884     1.135944     1.757610     4.933279    95.765931
  54 :    31.640549     7.971789     2.537683     0.480101     0.277152     1.331397
  55 :    31.640549     7.971789     2.537683     0.480101     0.277152     1.331397
  56 :    31.640549     7.971789     2.537683     0.480101     0.277152     1.331397
  57 :    31.640549     7.971789     2.537683     0.480101     0.277152     1.331397
  58 :    31.640549     7.971789     2.537683     0.480101     0.277152     1.331397
  59 :    31.640549     7.971789     2.537683     0.480101     0.277152     1.331397
  60 :    31.640549     7.971789     2.537683     0.480101     0.277152     1.331397
  61 :     0.506069     0.339538     0.509731     2.194493     5.254248    95.759784
  62 :     0.506069     0.339538     0.509731     2.194493     5.254248    95.759784
  63 :     0.506069     0.339538     0.509731     2.194493     5.254248    95.759784
  64 :     0.506069     0.339538     0.509731     2.194493     5.254248    95.759784
  65 :     0.506069     0.339538     0.509731     2.194493     5.254248    95.759784
  66 :     0.506069     0.339538     0.509731     2.194493     5.254248    95.759784
  67 :     0.506069     0.339538     0.509731     2.194493     5.254248    95.759784
  68 :     6.487123     1.938131     1.045073     1.448559     2.923349    53.751717
  69 :     6.487123     1.938131     1.045073     1.448559     2.923349    53.751717
  70 :     6.487123     1.938131     1.045073     1.448559     2.923349    53.751717
  71 :     6.487123     1.938131     1.045073     1.448559     2.923349    53.751717
  72 :     6.487123     1.938131     1.045073     1.448559     2.923349    53.751717
  73 :     6.487123     1.938131     1.045073     1.448559     2.923349    53.751717
  74 :     6.487123     1.938131     1.045073     1.448559     2.923349    53.751717
  75 :     0.447848     0.527899     0.691349     1.591730     2.782478    37.346352
  76 :     0.447848     0.527899     0.691349     1.591730     2.782478    37.346352
  77 :     0.447848     0.527899     0.691349     1.591730     2.782478    37.346352
  78 :     0.447848     0.527899     0.691349     1.591730     2.782478    37.346352
  79 :     0.447848     0.527899     0.691349     1.591730     2.782478    37.346352
  80 :     0.447848     0.527899     0.691349     1.591730     2.782478    37.346352
  81 :     0.447848     0.527899     0.691349     1.591730     2.782478    37.346352
  82 :     0.447848     0.527899     0.691349     1.591730     2.782478    37.346352
  83 :     0.447848     0.527899     0.691349     1.591730     2.782478    37.346352
-------
TIMINGS
-------

Total SCF time: 0 days 0 hours 3 min 40 sec 

Total time                  ....     220.482 sec
Sum of individual times     ....     220.281 sec  ( 99.9%)

Fock matrix formation       ....     220.008 sec  ( 99.8%)
Diagonalization             ....       0.018 sec  (  0.0%)
Density matrix formation    ....       0.002 sec  (  0.0%)
Population analysis         ....       0.001 sec  (  0.0%)
Initial guess               ....       0.117 sec  (  0.1%)
Orbital Transformation      ....       0.001 sec  (  0.0%)
Orbital Orthonormalization  ....       0.000 sec  (  0.0%)
DIIS solution               ....       0.006 sec  (  0.0%)

Maximum memory used throughout the entire SCF-calculation: 370.5 MB

-------------------------   --------------------
FINAL SINGLE POINT ENERGY    -19603.808116907850
-------------------------   --------------------


                            ***************************************
                            *     ORCA property calculations      *
                            ***************************************

                                    ---------------------
                                    Active property flags
                                    ---------------------
   (+) Dipole Moment


------------------------------------------------------------------------------
                       ORCA ELECTRIC PROPERTIES CALCULATION
------------------------------------------------------------------------------

Dipole Moment Calculation                       ... on
Quadrupole Moment Calculation                   ... off
Polarizability Calculation                      ... off
GBWName                                         ... Hg.gbw
Electron density                                ... Hg.scfp
The origin for moment calculation is the CENTER OF MASS  = ( 0.000000,  0.000000  0.000000)

-------------
DIPOLE MOMENT
-------------
                                X             Y             Z
Electronic contribution:     -0.00000      -0.00000      -0.00000
Nuclear contribution   :      0.00000       0.00000       0.00000
                        -----------------------------------------
Total Dipole Moment    :     -0.00000      -0.00000      -0.00000
                        -----------------------------------------
Magnitude (a.u.)       :      0.00000
Magnitude (Debye)      :      0.00000



--------------------
Rotational spectrum 
--------------------
 
Rotational constants in cm-1:     0.000000     0.000000     0.000000 
Rotational constants in MHz :     0.000000     0.000000     0.000000 

 Dipole components along the rotational axes: 
x,y,z [a.u.] :    -0.000000    -0.000000    -0.000000 
x,y,z [Debye]:    -0.000000    -0.000000    -0.000000 

 

Timings for individual modules:

Sum of individual times         ...      251.176 sec (=   4.186 min)
GTO integral calculation        ...       30.390 sec (=   0.506 min)  12.1 %
Relativistic integrals          ...        0.279 sec (=   0.005 min)   0.1 %
SCF iterations                  ...      220.507 sec (=   3.675 min)  87.8 %
                             ****ORCA TERMINATED NORMALLY****
TOTAL RUN TIME: 0 days 0 hours 4 minutes 11 seconds 387 msec
